# vtk DataFile Version 3.0
#This file was generated by the deal.II library on 2015/10/21 at 10:41:10
ASCII
DATASET UNSTRUCTURED_GRID

POINTS 260 double
0 0 0
0.006 0 0
0 0.00615385 0
0.006 0.00615385 0
0.006 0 0
0.012 0 0
0.006 0.00615385 0
0.012 0.00615385 0
0.012 0 0
0.018 0 0
0.012 0.00615385 0
0.018 0.00615385 0
0.018 0 0
0.024 0 0
0.018 0.00615385 0
0.024 0.00615385 0
0.024 0 0
0.03 0 0
0.024 0.00615385 0
0.03 0.00615385 0
0 0.00615385 0
0.006 0.00615385 0
0 0.0123077 0
0.006 0.0123077 0
0.006 0.00615385 0
0.012 0.00615385 0
0.006 0.0123077 0
0.012 0.0123077 0
0.012 0.00615385 0
0.018 0.00615385 0
0.012 0.0123077 0
0.018 0.0123077 0
0.018 0.00615385 0
0.024 0.00615385 0
0.018 0.0123077 0
0.024 0.0123077 0
0.024 0.00615385 0
0.03 0.00615385 0
0.024 0.0123077 0
0.03 0.0123077 0
0 0.0123077 0
0.006 0.0123077 0
0 0.0184615 0
0.006 0.0184615 0
0.006 0.0123077 0
0.012 0.0123077 0
0.006 0.0184615 0
0.012 0.0184615 0
0.012 0.0123077 0
0.018 0.0123077 0
0.012 0.0184615 0
0.018 0.0184615 0
0.018 0.0123077 0
0.024 0.0123077 0
0.018 0.0184615 0
0.024 0.0184615 0
0.024 0.0123077 0
0.03 0.0123077 0
0.024 0.0184615 0
0.03 0.0184615 0
0 0.0184615 0
0.006 0.0184615 0
0 0.0246154 0
0.006 0.0246154 0
0.006 0.0184615 0
0.012 0.0184615 0
0.006 0.0246154 0
0.012 0.0246154 0
0.012 0.0184615 0
0.018 0.0184615 0
0.012 0.0246154 0
0.018 0.0246154 0
0.018 0.0184615 0
0.024 0.0184615 0
0.018 0.0246154 0
0.024 0.0246154 0
0.024 0.0184615 0
0.03 0.0184615 0
0.024 0.0246154 0
0.03 0.0246154 0
0 0.0246154 0
0.006 0.0246154 0
0 0.0307692 0
0.006 0.0307692 0
0.006 0.0246154 0
0.012 0.0246154 0
0.006 0.0307692 0
0.012 0.0307692 0
0.012 0.0246154 0
0.018 0.0246154 0
0.012 0.0307692 0
0.018 0.0307692 0
0.018 0.0246154 0
0.024 0.0246154 0
0.018 0.0307692 0
0.024 0.0307692 0
0.024 0.0246154 0
0.03 0.0246154 0
0.024 0.0307692 0
0.03 0.0307692 0
0 0.0307692 0
0.006 0.0307692 0
0 0.0369231 0
0.006 0.0369231 0
0.006 0.0307692 0
0.012 0.0307692 0
0.006 0.0369231 0
0.012 0.0369231 0
0.012 0.0307692 0
0.018 0.0307692 0
0.012 0.0369231 0
0.018 0.0369231 0
0.018 0.0307692 0
0.024 0.0307692 0
0.018 0.0369231 0
0.024 0.0369231 0
0.024 0.0307692 0
0.03 0.0307692 0
0.024 0.0369231 0
0.03 0.0369231 0
0 0.0369231 0
0.006 0.0369231 0
0 0.0430769 0
0.006 0.0430769 0
0.006 0.0369231 0
0.012 0.0369231 0
0.006 0.0430769 0
0.012 0.0430769 0
0.012 0.0369231 0
0.018 0.0369231 0
0.012 0.0430769 0
0.018 0.0430769 0
0.018 0.0369231 0
0.024 0.0369231 0
0.018 0.0430769 0
0.024 0.0430769 0
0.024 0.0369231 0
0.03 0.0369231 0
0.024 0.0430769 0
0.03 0.0430769 0
0 0.0430769 0
0.006 0.0430769 0
0 0.0492308 0
0.006 0.0492308 0
0.006 0.0430769 0
0.012 0.0430769 0
0.006 0.0492308 0
0.012 0.0492308 0
0.012 0.0430769 0
0.018 0.0430769 0
0.012 0.0492308 0
0.018 0.0492308 0
0.018 0.0430769 0
0.024 0.0430769 0
0.018 0.0492308 0
0.024 0.0492308 0
0.024 0.0430769 0
0.03 0.0430769 0
0.024 0.0492308 0
0.03 0.0492308 0
0 0.0492308 0
0.006 0.0492308 0
0 0.0553846 0
0.006 0.0553846 0
0.006 0.0492308 0
0.012 0.0492308 0
0.006 0.0553846 0
0.012 0.0553846 0
0.012 0.0492308 0
0.018 0.0492308 0
0.012 0.0553846 0
0.018 0.0553846 0
0.018 0.0492308 0
0.024 0.0492308 0
0.018 0.0553846 0
0.024 0.0553846 0
0.024 0.0492308 0
0.03 0.0492308 0
0.024 0.0553846 0
0.03 0.0553846 0
0 0.0553846 0
0.006 0.0553846 0
0 0.0615385 0
0.006 0.0615385 0
0.006 0.0553846 0
0.012 0.0553846 0
0.006 0.0615385 0
0.012 0.0615385 0
0.012 0.0553846 0
0.018 0.0553846 0
0.012 0.0615385 0
0.018 0.0615385 0
0.018 0.0553846 0
0.024 0.0553846 0
0.018 0.0615385 0
0.024 0.0615385 0
0.024 0.0553846 0
0.03 0.0553846 0
0.024 0.0615385 0
0.03 0.0615385 0
0 0.0615385 0
0.006 0.0615385 0
0 0.0676923 0
0.006 0.0676923 0
0.006 0.0615385 0
0.012 0.0615385 0
0.006 0.0676923 0
0.012 0.0676923 0
0.012 0.0615385 0
0.018 0.0615385 0
0.012 0.0676923 0
0.018 0.0676923 0
0.018 0.0615385 0
0.024 0.0615385 0
0.018 0.0676923 0
0.024 0.0676923 0
0.024 0.0615385 0
0.03 0.0615385 0
0.024 0.0676923 0
0.03 0.0676923 0
0 0.0676923 0
0.006 0.0676923 0
0 0.0738462 0
0.006 0.0738462 0
0.006 0.0676923 0
0.012 0.0676923 0
0.006 0.0738462 0
0.012 0.0738462 0
0.012 0.0676923 0
0.018 0.0676923 0
0.012 0.0738462 0
0.018 0.0738462 0
0.018 0.0676923 0
0.024 0.0676923 0
0.018 0.0738462 0
0.024 0.0738462 0
0.024 0.0676923 0
0.03 0.0676923 0
0.024 0.0738462 0
0.03 0.0738462 0
0 0.0738462 0
0.006 0.0738462 0
0 0.08 0
0.006 0.08 0
0.006 0.0738462 0
0.012 0.0738462 0
0.006 0.08 0
0.012 0.08 0
0.012 0.0738462 0
0.018 0.0738462 0
0.012 0.08 0
0.018 0.08 0
0.018 0.0738462 0
0.024 0.0738462 0
0.018 0.08 0
0.024 0.08 0
0.024 0.0738462 0
0.03 0.0738462 0
0.024 0.08 0
0.03 0.08 0

CELLS 65 325
4	0	1	3	2
4	4	5	7	6
4	8	9	11	10
4	12	13	15	14
4	16	17	19	18
4	20	21	23	22
4	24	25	27	26
4	28	29	31	30
4	32	33	35	34
4	36	37	39	38
4	40	41	43	42
4	44	45	47	46
4	48	49	51	50
4	52	53	55	54
4	56	57	59	58
4	60	61	63	62
4	64	65	67	66
4	68	69	71	70
4	72	73	75	74
4	76	77	79	78
4	80	81	83	82
4	84	85	87	86
4	88	89	91	90
4	92	93	95	94
4	96	97	99	98
4	100	101	103	102
4	104	105	107	106
4	108	109	111	110
4	112	113	115	114
4	116	117	119	118
4	120	121	123	122
4	124	125	127	126
4	128	129	131	130
4	132	133	135	134
4	136	137	139	138
4	140	141	143	142
4	144	145	147	146
4	148	149	151	150
4	152	153	155	154
4	156	157	159	158
4	160	161	163	162
4	164	165	167	166
4	168	169	171	170
4	172	173	175	174
4	176	177	179	178
4	180	181	183	182
4	184	185	187	186
4	188	189	191	190
4	192	193	195	194
4	196	197	199	198
4	200	201	203	202
4	204	205	207	206
4	208	209	211	210
4	212	213	215	214
4	216	217	219	218
4	220	221	223	222
4	224	225	227	226
4	228	229	231	230
4	232	233	235	234
4	236	237	239	238
4	240	241	243	242
4	244	245	247	246
4	248	249	251	250
4	252	253	255	254
4	256	257	259	258

CELL_TYPES 65
 9 9 9 9 9 9 9 9 9 9 9 9 9 9 9 9 9 9 9 9 9 9 9 9 9 9 9 9 9 9 9 9 9 9 9 9 9 9 9 9 9 9 9 9 9 9 9 9 9 9 9 9 9 9 9 9 9 9 9 9 9 9 9 9 9
POINT_DATA 260
SCALARS D double 1
LOOKUP_TABLE default
100 99.9998 99.9998 99.9995 99.9998 99.9991 99.9995 99.9988 99.9991 99.9979 99.9988 99.9977 99.9979 99.9963 99.9977 99.996 99.9963 99.9942 99.996 99.9939 99.9998 99.9995 99.999 99.9988 99.9995 99.9988 99.9988 99.9981 99.9988 99.9977 99.9981 99.9969 99.9977 99.996 99.9969 99.9953 99.996 99.9939 99.9953 99.9932 99.999 99.9988 99.9978 99.9976 99.9988 99.9981 99.9976 99.9968 99.9981 99.9969 99.9968 99.9957 99.9969 99.9953 99.9957 99.994 99.9953 99.9932 99.994 99.9919 99.9978 99.9976 99.9961 99.9958 99.9976 99.9968 99.9958 99.9951 99.9968 99.9957 99.9951 99.994 99.9957 99.994 99.994 99.9923 99.994 99.9919 99.9923 99.9902 99.9961 99.9958 99.9939 99.9936 99.9958 99.9951 99.9936 99.9929 99.9951 99.994 99.9929 99.9917 99.994 99.9923 99.9917 99.9901 99.9923 99.9902 99.9901 99.988 99.9939 99.9936 99.9911 99.9909 99.9936 99.9929 99.9909 99.9902 99.9929 99.9917 99.9902 99.989 99.9917 99.9901 99.989 99.9874 99.9901 99.988 99.9874 99.9853 99.9911 99.9909 99.988 99.9877 99.9909 99.9902 99.9877 99.987 99.9902 99.989 99.987 99.9858 99.989 99.9874 99.9858 99.9842 99.9874 99.9853 99.9842 99.9821 99.988 99.9877 99.9843 99.984 99.9877 99.987 99.984 99.9833 99.987 99.9858 99.9833 99.9822 99.9858 99.9842 99.9822 99.9805 99.9842 99.9821 99.9805 99.9784 99.9843 99.984 99.9801 99.9799 99.984 99.9833 99.9799 99.9791 99.9833 99.9822 99.9791 99.978 99.9822 99.9805 99.978 99.9763 99.9805 99.9784 99.9763 99.9742 99.9801 99.9799 99.9754 99.9752 99.9799 99.9791 99.9752 99.9745 99.9791 99.978 99.9745 99.9733 99.978 99.9763 99.9733 99.9717 99.9763 99.9742 99.9717 99.9696 99.9754 99.9752 99.9702 99.97 99.9752 99.9745 99.97 99.9693 99.9745 99.9733 99.9693 99.9681 99.9733 99.9717 99.9681 99.9665 99.9717 99.9696 99.9665 99.9644 99.9702 99.97 99.9646 99.9644 99.97 99.9693 99.9644 99.9637 99.9693 99.9681 99.9637 99.9625 99.9681 99.9665 99.9625 99.9608 99.9665 99.9644 99.9608 99.9587 99.9646 99.9644 99.9584 99.9582 99.9644 99.9637 99.9582 99.9575 99.9637 99.9625 99.9575 99.9563 99.9625 99.9608 99.9563 99.9547 99.9608 99.9587 99.9547 99.9526 
